 Entering Gaussian System, Link 0=g16
 Input=mex.com
 Output=mex.out
 Initial command:
 /usr/local/apps/gaussian/g16-b01-avx//g16/l1.exe "/tmp/r2652.525076.maple/Gau-82961.inp" -scrdir="/tmp/r2652.525076.maple/"
 Entering Link 1 = /usr/local/apps/gaussian/g16-b01-avx//g16/l1.exe PID=     82962.
  
 Copyright (c) 1988-2017, Gaussian, Inc.  All Rights Reserved.
  
 This is part of the Gaussian(R) 16 program.  It is based on
 the Gaussian(R) 09 system (copyright 2009, Gaussian, Inc.),
 the Gaussian(R) 03 system (copyright 2003, Gaussian, Inc.),
 the Gaussian(R) 98 system (copyright 1998, Gaussian, Inc.),
 the Gaussian(R) 94 system (copyright 1995, Gaussian, Inc.),
 the Gaussian 92(TM) system (copyright 1992, Gaussian, Inc.),
 the Gaussian 90(TM) system (copyright 1990, Gaussian, Inc.),
 the Gaussian 88(TM) system (copyright 1988, Gaussian, Inc.),
 the Gaussian 86(TM) system (copyright 1986, Carnegie Mellon
 University), and the Gaussian 82(TM) system (copyright 1983,
 Carnegie Mellon University). Gaussian is a federally registered
 trademark of Gaussian, Inc.
  
 This software contains proprietary and confidential information,
 including trade secrets, belonging to Gaussian, Inc.
  
 This software is provided under written license and may be
 used, copied, transmitted, or stored only in accord with that
 written license.
  
 The following legend is applicable only to US Government
 contracts under FAR:
  
                    RESTRICTED RIGHTS LEGEND
  
 Use, reproduction and disclosure by the US Government is
 subject to restrictions as set forth in subparagraphs (a)
 and (c) of the Commercial Computer Software - Restricted
 Rights clause in FAR 52.227-19.
  
 Gaussian, Inc.
 340 Quinnipiac St., Bldg. 40, Wallingford CT 06492
  
  
 ---------------------------------------------------------------
 Warning -- This program may not be used in any manner that
 competes with the business of Gaussian, Inc. or will provide
 assistance to any competitor of Gaussian, Inc.  The licensee
 of this program is prohibited from giving any competitor of
 Gaussian, Inc. access to this program.  By using this program,
 the user acknowledges that Gaussian, Inc. is engaged in the
 business of creating and licensing software in the field of
 computational chemistry and represents and warrants to the
 licensee that it is not a competitor of Gaussian, Inc. and that
 it will not use this program in any manner prohibited above.
 ---------------------------------------------------------------
  

 Cite this work as:
 Gaussian 16, Revision B.01,
 M. J. Frisch, G. W. Trucks, H. B. Schlegel, G. E. Scuseria, 
 M. A. Robb, J. R. Cheeseman, G. Scalmani, V. Barone, 
 G. A. Petersson, H. Nakatsuji, X. Li, M. Caricato, A. V. Marenich, 
 J. Bloino, B. G. Janesko, R. Gomperts, B. Mennucci, H. P. Hratchian, 
 J. V. Ortiz, A. F. Izmaylov, J. L. Sonnenberg, D. Williams-Young, 
 F. Ding, F. Lipparini, F. Egidi, J. Goings, B. Peng, A. Petrone, 
 T. Henderson, D. Ranasinghe, V. G. Zakrzewski, J. Gao, N. Rega, 
 G. Zheng, W. Liang, M. Hada, M. Ehara, K. Toyota, R. Fukuda, 
 J. Hasegawa, M. Ishida, T. Nakajima, Y. Honda, O. Kitao, H. Nakai, 
 T. Vreven, K. Throssell, J. A. Montgomery, Jr., J. E. Peralta, 
 F. Ogliaro, M. J. Bearpark, J. J. Heyd, E. N. Brothers, K. N. Kudin, 
 V. N. Staroverov, T. A. Keith, R. Kobayashi, J. Normand, 
 K. Raghavachari, A. P. Rendell, J. C. Burant, S. S. Iyengar, 
 J. Tomasi, M. Cossi, J. M. Millam, M. Klene, C. Adamo, R. Cammi, 
 J. W. Ochterski, R. L. Martin, K. Morokuma, O. Farkas, 
 J. B. Foresman, and D. J. Fox, Gaussian, Inc., Wallingford CT, 2016.
 
 ******************************************
 Gaussian 16:  ES64L-G16RevB.01 20-Dec-2017
                17-Feb-2021 
 ******************************************
 %mem=1600mb
 %nprocs=4
 Will use up to    4 processors via shared memory.
 ----------------------------------------
 #N wB97XD/6-31G(d) opt=ModRedundant FREQ
 ----------------------------------------
 1/18=120,19=15,26=3,38=1/1,3;
 2/9=110,12=2,17=6,18=5,40=1/2;
 3/5=1,6=6,7=1,11=2,25=1,30=1,71=1,74=-58/1,2,3;
 4//1;
 5/5=2,38=5/2;
 6/7=2,8=2,9=2,10=2,28=1/1;
 7//1,2,3,16;
 1/18=20,19=15,26=3/3(2);
 2/9=110/2;
 99//99;
 2/9=110/2;
 3/5=1,6=6,7=1,11=2,25=1,30=1,71=1,74=-58/1,2,3;
 4/5=5,16=3,69=1/1;
 5/5=2,38=5/2;
 7//1,2,3,16;
 1/18=20,19=15,26=3/3(-5);
 2/9=110/2;
 6/7=2,8=2,9=2,10=2,19=2,28=1/1;
 99/9=1/99;
 -----------------
 Name ModRedundant
 -----------------
 Symbolic Z-matrix:
 Charge =  0 Multiplicity = 1
 O1                    0.        0.        0.11564 
 H2                    0.       -0.76668  -0.46256 
 H3                    0.        0.76668  -0.46256 
 O4                   -4.22358   3.38531   0.07359 
 H5                   -3.49399   2.77999  -0.07939 
 H6                   -3.88132   4.07005   0.65333 
 O7                   -0.68109   0.51028  -2.36512 
 H8                   -0.66742   1.08323  -3.1356 
 H9                   -1.45372  -0.05076  -2.46706 
 O10                  -3.39688  -2.77128   4.17746 
 H11                  -3.35048  -3.53022   3.59096 
 H12                  -3.59434  -3.12286   5.04896 
 O13                   2.27508  -1.97739   2.60781 
 H14                   1.41275  -2.37996   2.73601 
 H15                   2.44793  -2.01853   1.66412 
 O16                  -2.86825   1.57062   3.90192 
 H17                  -3.16724   2.16888   3.21287 
 H18                  -1.90988   1.55799   3.84295 
 O19                  -3.1651   -1.14765   2.39553 
 H20                  -2.93938  -0.69281   3.21056 
 H21                  -3.40078  -0.46122   1.76673 
 O22                   3.39645  -2.78412  -2.89535 
 H23                   3.289    -1.91592  -3.29131 
 H24                   2.85934  -2.7795   -2.09935 
 O25                  -3.93153  -2.97336   1.15761 
 H26                  -3.24748  -2.38875   0.8223 
 H27                  -3.88066  -3.7714    0.62595 
 O28                   2.46999   0.89911  -1.92583 
 H29                   2.03103   0.08186  -2.17389 
 H30                   3.32089   0.88728  -2.37073 
 O31                  -0.57993   1.20183   2.17421 
 H32                   0.1283    1.85025   2.18262 
 H33                  -1.22204   1.52054   1.53528 
 O34                   0.38302  -3.20898  -3.89731 
 H35                   0.68815  -2.3993   -4.31376 
 H36                   0.82058  -3.92615  -4.36243 
 O37                   4.39746   3.69495   4.08521 
 H38                   3.77393   3.68199   3.35504 
 H39                   4.05046   3.08376   4.73953 
 O40                  -1.304    -3.59188  -1.25324 
 H41                  -0.39965  -3.59633  -0.93038 
 H42                  -1.24216  -3.58971  -2.21151 
 O43                  -0.40802   4.08528  -1.883 
 H44                  -1.25444   3.73109  -1.59974 
 H45                   0.25758   3.48278  -1.54231 
 O46                   2.78943   1.79136   2.32114 
 H47                   2.49716   0.94405   2.66574 
 H48                   2.19587   2.44723   2.69481 
 O49                   4.01608   0.24967   1.1785 
 H50                   4.81562  -0.21063   0.91209 
 H51                   3.90683   0.97157   0.55478 
 O52                   0.3113   -4.36318   3.32055 
 H53                  -0.48407  -4.84832   3.08786 
 H54                   0.74383  -4.87846   4.00576 
 O55                  -0.64433   4.44455   0.68081 
 H56                  -1.05741   5.30266   0.80381 
 H57                  -0.63238   4.03072   1.54725 
 O58                  -4.03119   1.91197  -3.40596 
 H59                  -4.54758   2.33943  -4.09351 
 H60                  -4.2363    2.37943  -2.59262 
 O61                   0.65242  -0.85823   4.02809 
 H62                   0.5663   -1.15619   4.93689 
 H63                  -0.2298   -0.90156   3.65137 
 O64                   3.28324   4.3701   -3.14718 
 H65                   3.01843   3.59332  -2.64859 
 H66                   4.19926   4.53554  -2.91129 
 O67                  -3.0511   -0.88028  -3.67966 
 H68                  -3.15747  -1.79595  -3.41066 
 H69                  -2.24225  -0.84921  -4.1963 
 O70                  -4.11729  -3.36928  -2.47838 
 H71                  -4.75791  -2.96342  -1.88932 
 H72                  -3.72526  -4.09297  -1.98371 
 O73                   0.3752    3.82385   4.29224 
 H74                   0.11364   3.37719   5.10106 
 H75                  -0.08792   4.66506   4.29364 
 O76                   4.54799  -4.20349  -0.69423 
 H77                   4.7625   -3.96939  -1.60048 
 H78                   3.60149  -4.06903  -0.60384 
 O79                  -4.0893    0.02509  -1.26973 
 H80                  -3.4839   -0.45398  -0.69869 
 H81                  -3.53907   0.53735  -1.86719 
 O82                   2.73918   3.10701  -0.01674 
 H83                   3.69765   3.06638   0.02556 
 H84                   2.45148   3.44515   0.83472 
 O85                  -4.14874   4.42349  -3.92937 
 H86                  -4.6685    4.67817  -4.69559 
 H87                  -3.34688   4.02411  -4.27525 
 O88                   4.24123   1.96987  -4.37649 
 H89                   5.10325   2.36967  -4.51501 
 H90                   3.59969   2.60722  -4.69945 
 O91                   4.46658  -2.99943   3.96989 
 H92                   3.79024  -3.51848   4.41178 
 H93                   4.05221  -2.163     3.74454 
 O94                   4.43371  -4.26345   1.34263 
 H95                   4.79005  -4.37821   2.22692 
 H96                   3.50706  -4.50925   1.39751 
 
 Add virtual bond connecting atoms H26        and O19        Dist= 3.79D+00.
 Add virtual bond connecting atoms H26        and H21        Dist= 4.07D+00.
 Add virtual bond connecting atoms O7         and H3         Dist= 3.85D+00.
 Add virtual bond connecting atoms O94        and O76        Dist= 3.86D+00.
 Add virtual bond connecting atoms O94        and H78        Dist= 4.02D+00.
 Add virtual bond connecting atoms H96        and H78        Dist= 3.88D+00.
 Add virtual bond connecting atoms O67        and H9         Dist= 4.10D+00.
 Add virtual bond connecting atoms H69        and H9         Dist= 3.90D+00.
 Add virtual bond connecting atoms O70        and H68        Dist= 3.90D+00.
 Add virtual bond connecting atoms O85        and H59        Dist= 4.02D+00.
 Add virtual bond connecting atoms H87        and H59        Dist= 3.92D+00.
 Add virtual bond connecting atoms H81        and O58        Dist= 4.01D+00.
 Add virtual bond connecting atoms H81        and H60        Dist= 3.97D+00.
 Add virtual bond connecting atoms H77        and O22        Dist= 4.20D+00.
 Add virtual bond connecting atoms H78        and H24        Dist= 3.99D+00.
 Add virtual bond connecting atoms H48        and H38        Dist= 3.99D+00.
 Add virtual bond connecting atoms H93        and O13        Dist= 4.00D+00.
 Add virtual bond connecting atoms H84        and O46        Dist= 4.25D+00.
 Add virtual bond connecting atoms H84        and H48        Dist= 4.02D+00.
 Add virtual bond connecting atoms O61        and H14        Dist= 4.04D+00.
 Add virtual bond connecting atoms O31        and H18        Dist= 4.09D+00.
 Add virtual bond connecting atoms O46        and O49        Dist= 4.30D+00.
 Add virtual bond connecting atoms O46        and H51        Dist= 4.24D+00.
 Add virtual bond connecting atoms H47        and O49        Dist= 4.23D+00.
 Add virtual bond connecting atoms H83        and H51        Dist= 4.10D+00.
 Add virtual bond connecting atoms H48        and H32        Dist= 4.18D+00.
 Add virtual bond connecting atoms H95        and O91        Dist= 4.24D+00.
 Add virtual bond connecting atoms H81        and H9         Dist= 4.25D+00.
 Add virtual bond connecting atoms H81        and O67        Dist= 4.45D+00.
 Add virtual bond connecting atoms O19        and O10        Dist= 4.58D+00.
 Add virtual bond connecting atoms H20        and O10        Dist= 4.42D+00.
 Add virtual bond connecting atoms O52        and H14        Dist= 4.43D+00.
 Add virtual bond connecting atoms H90        and O64        Dist= 4.48D+00.
 Add virtual bond connecting atoms H90        and H65        Dist= 4.44D+00.
 Add virtual bond connecting atoms H20        and O16        Dist= 4.47D+00.
 Add virtual bond connecting atoms H42        and O34        Dist= 4.48D+00.
 Add virtual bond connecting atoms H57        and H32        Dist= 4.53D+00.
 Add virtual bond connecting atoms H21        and H80        Dist= 4.66D+00.
 Add virtual bond connecting atoms H26        and H80        Dist= 4.67D+00.
 Add virtual bond connecting atoms O31        and O1         Dist= 4.64D+00.
 Add virtual bond connecting atoms H33        and O1         Dist= 4.56D+00.
 Add virtual bond connecting atoms H33        and H3         Dist= 4.65D+00.
 Add virtual bond connecting atoms O88        and H30        Dist= 4.65D+00.
 Add virtual bond connecting atoms O55        and O43        Dist= 4.91D+00.
 Add virtual bond connecting atoms O55        and H44        Dist= 4.66D+00.
 Add virtual bond connecting atoms O55        and H45        Dist= 4.88D+00.
 Add virtual bond connecting atoms H72        and O40        Dist= 4.87D+00.
 Add virtual bond connecting atoms H72        and H42        Dist= 4.81D+00.
 Add virtual bond connecting atoms H63        and O31        Dist= 4.90D+00.
 Add virtual bond connecting atoms H29        and H3         Dist= 5.18D+00.
 Add virtual bond connecting atoms H29        and O7         Dist= 5.20D+00.
 Add virtual bond connecting atoms H29        and H23        Dist= 4.94D+00.
 Add virtual bond connecting atoms H65        and O82        Dist= 5.09D+00.
 Add virtual bond connecting atoms H60        and H5         Dist= 5.01D+00.
 Add virtual bond connecting atoms O73        and H32        Dist= 5.48D+00.
 Add virtual bond connecting atoms O73        and H48        Dist= 5.26D+00.
 Add virtual bond connecting atoms O73        and H57        Dist= 5.54D+00.
 Add virtual bond connecting atoms H75        and H57        Dist= 5.43D+00.
 The following ModRedundant input section has been read:
 

 GradGradGradGradGradGradGradGradGradGradGradGradGradGradGradGradGradGrad
 Berny optimization.
 Initialization pass.
                           ----------------------------
                           !    Initial Parameters    !
                           ! (Angstroms and Degrees)  !
 --------------------------                            --------------------------
 ! Name  Definition              Value          Derivative Info.                !
 --------------------------------------------------------------------------------
 ! R1    R(1,2)                  0.9603         estimate D2E/DX2                !
 ! R2    R(1,3)                  0.9603         estimate D2E/DX2                !
 ! R3    R(1,31)                 2.4533         estimate D2E/DX2                !
 ! R4    R(1,33)                 2.4126         estimate D2E/DX2                !
 ! R5    R(3,7)                  2.037          estimate D2E/DX2                !
 ! R6    R(3,29)                 2.7428         estimate D2E/DX2                !
 ! R7    R(3,33)                 2.4603         estimate D2E/DX2                !
 ! R8    R(4,5)                  0.9603         estimate D2E/DX2                !
 ! R9    R(4,6)                  0.9603         estimate D2E/DX2                !
 ! R10   R(5,60)                 2.651          estimate D2E/DX2                !
 ! R11   R(7,8)                  0.9603         estimate D2E/DX2                !
 ! R12   R(7,9)                  0.9603         estimate D2E/DX2                !
 ! R13   R(7,29)                 2.7524         estimate D2E/DX2                !
 ! R14   R(9,67)                 2.1703         estimate D2E/DX2                !
 ! R15   R(9,69)                 2.0614         estimate D2E/DX2                !
 ! R16   R(9,81)                 2.2482         estimate D2E/DX2                !
 ! R17   R(10,11)                0.9603         estimate D2E/DX2                !
 ! R18   R(10,12)                0.9603         estimate D2E/DX2                !
 ! R19   R(10,19)                2.4218         estimate D2E/DX2                !
 ! R20   R(10,20)                2.3376         estimate D2E/DX2                !
 ! R21   R(13,14)                0.9603         estimate D2E/DX2                !
 ! R22   R(13,15)                0.9603         estimate D2E/DX2                !
 ! R23   R(13,93)                2.1177         estimate D2E/DX2                !
 ! R24   R(14,52)                2.3427         estimate D2E/DX2                !
 ! R25   R(14,61)                2.1362         estimate D2E/DX2                !
 ! R26   R(16,17)                0.9603         estimate D2E/DX2                !
 ! R27   R(16,18)                0.9603         estimate D2E/DX2                !
 ! R28   R(16,20)                2.3677         estimate D2E/DX2                !
 ! R29   R(18,31)                2.1634         estimate D2E/DX2                !
 ! R30   R(19,20)                0.9603         estimate D2E/DX2                !
 ! R31   R(19,21)                0.9603         estimate D2E/DX2                !
 ! R32   R(19,26)                2.0055         estimate D2E/DX2                !
 ! R33   R(21,26)                2.1519         estimate D2E/DX2                !
 ! R34   R(21,80)                2.4668         estimate D2E/DX2                !
 ! R35   R(22,23)                0.9603         estimate D2E/DX2                !
 ! R36   R(22,24)                0.9603         estimate D2E/DX2                !
 ! R37   R(22,77)                2.2243         estimate D2E/DX2                !
 ! R38   R(23,29)                2.6119         estimate D2E/DX2                !
 ! R39   R(24,78)                2.1096         estimate D2E/DX2                !
 ! R40   R(25,26)                0.9603         estimate D2E/DX2                !
 ! R41   R(25,27)                0.9603         estimate D2E/DX2                !
 ! R42   R(26,80)                2.4724         estimate D2E/DX2                !
 ! R43   R(28,29)                0.9603         estimate D2E/DX2                !
 ! R44   R(28,30)                0.9603         estimate D2E/DX2                !
 ! R45   R(30,88)                2.4581         estimate D2E/DX2                !
 ! R46   R(31,32)                0.9603         estimate D2E/DX2                !
 ! R47   R(31,33)                0.9603         estimate D2E/DX2                !
 ! R48   R(31,63)                2.594          estimate D2E/DX2                !
 ! R49   R(32,48)                2.2121         estimate D2E/DX2                !
 ! R50   R(32,57)                2.3952         estimate D2E/DX2                !
 ! R51   R(32,73)                2.8994         estimate D2E/DX2                !
 ! R52   R(34,35)                0.9603         estimate D2E/DX2                !
 ! R53   R(34,36)                0.9603         estimate D2E/DX2                !
 ! R54   R(34,42)                2.3724         estimate D2E/DX2                !
 ! R55   R(37,38)                0.9603         estimate D2E/DX2                !
 ! R56   R(37,39)                0.9603         estimate D2E/DX2                !
 ! R57   R(38,48)                2.1097         estimate D2E/DX2                !
 ! R58   R(40,41)                0.9603         estimate D2E/DX2                !
 ! R59   R(40,42)                0.9603         estimate D2E/DX2                !
 ! R60   R(40,72)                2.5782         estimate D2E/DX2                !
 ! R61   R(42,72)                2.5438         estimate D2E/DX2                !
 ! R62   R(43,44)                0.9603         estimate D2E/DX2                !
 ! R63   R(43,45)                0.9603         estimate D2E/DX2                !
 ! R64   R(43,55)                2.5996         estimate D2E/DX2                !
 ! R65   R(44,55)                2.4662         estimate D2E/DX2                !
 ! R66   R(45,55)                2.5847         estimate D2E/DX2                !
 ! R67   R(46,47)                0.9603         estimate D2E/DX2                !
 ! R68   R(46,48)                0.9603         estimate D2E/DX2                !
 ! R69   R(46,49)                2.2775         estimate D2E/DX2                !
 ! R70   R(46,51)                2.2451         estimate D2E/DX2                !
 ! R71   R(46,84)                2.2492         estimate D2E/DX2                !
 ! R72   R(47,49)                2.2363         estimate D2E/DX2                !
 ! R73   R(48,73)                2.786          estimate D2E/DX2                !
 ! R74   R(48,84)                2.1263         estimate D2E/DX2                !
 ! R75   R(49,50)                0.9603         estimate D2E/DX2                !
 ! R76   R(49,51)                0.9603         estimate D2E/DX2                !
 ! R77   R(51,83)                2.1707         estimate D2E/DX2                !
 ! R78   R(52,53)                0.9603         estimate D2E/DX2                !
 ! R79   R(52,54)                0.9603         estimate D2E/DX2                !
 ! R80   R(55,56)                0.9603         estimate D2E/DX2                !
 ! R81   R(55,57)                0.9603         estimate D2E/DX2                !
 ! R82   R(57,73)                2.9314         estimate D2E/DX2                !
 ! R83   R(57,75)                2.8708         estimate D2E/DX2                !
 ! R84   R(58,59)                0.9603         estimate D2E/DX2                !
 ! R85   R(58,60)                0.9603         estimate D2E/DX2                !
 ! R86   R(58,81)                2.1212         estimate D2E/DX2                !
 ! R87   R(59,85)                2.1282         estimate D2E/DX2                !
 ! R88   R(59,87)                2.0767         estimate D2E/DX2                !
 ! R89   R(60,81)                2.099          estimate D2E/DX2                !
 ! R90   R(61,62)                0.9603         estimate D2E/DX2                !
 ! R91   R(61,63)                0.9603         estimate D2E/DX2                !
 ! R92   R(64,65)                0.9603         estimate D2E/DX2                !
 ! R93   R(64,66)                0.9603         estimate D2E/DX2                !
 ! R94   R(64,90)                2.3701         estimate D2E/DX2                !
 ! R95   R(65,82)                2.6909         estimate D2E/DX2                !
 ! R96   R(65,90)                2.3487         estimate D2E/DX2                !
 ! R97   R(67,68)                0.9603         estimate D2E/DX2                !
 ! R98   R(67,69)                0.9603         estimate D2E/DX2                !
 ! R99   R(67,81)                2.3522         estimate D2E/DX2                !
 ! R100  R(68,70)                2.0654         estimate D2E/DX2                !
 ! R101  R(70,71)                0.9603         estimate D2E/DX2                !
 ! R102  R(70,72)                0.9603         estimate D2E/DX2                !
 ! R103  R(73,74)                0.9603         estimate D2E/DX2                !
 ! R104  R(73,75)                0.9603         estimate D2E/DX2                !
 ! R105  R(76,77)                0.9603         estimate D2E/DX2                !
 ! R106  R(76,78)                0.9603         estimate D2E/DX2                !
 ! R107  R(76,94)                2.0409         estimate D2E/DX2                !
 ! R108  R(78,94)                2.1258         estimate D2E/DX2                !
 ! R109  R(78,96)                2.0514         estimate D2E/DX2                !
 ! R110  R(79,80)                0.9603         estimate D2E/DX2                !
 ! R111  R(79,81)                0.9603         estimate D2E/DX2                !
 ! R112  R(82,83)                0.9603         estimate D2E/DX2                !
 ! R113  R(82,84)                0.9603         estimate D2E/DX2                !
 ! R114  R(85,86)                0.9603         estimate D2E/DX2                !
 ! R115  R(85,87)                0.9603         estimate D2E/DX2                !
 ! R116  R(88,89)                0.9603         estimate D2E/DX2                !
 ! R117  R(88,90)                0.9603         estimate D2E/DX2                !
 ! R118  R(91,92)                0.9603         estimate D2E/DX2                !
 ! R119  R(91,93)                0.9603         estimate D2E/DX2                !
 ! R120  R(91,95)                2.2458         estimate D2E/DX2                !
 ! R121  R(94,95)                0.9603         estimate D2E/DX2                !
 ! R122  R(94,96)                0.9603         estimate D2E/DX2                !
 ! A1    A(2,1,3)              105.9549         estimate D2E/DX2                !
 ! A2    A(2,1,31)             153.6874         estimate D2E/DX2                !
 ! A3    A(2,1,33)             149.0357         estimate D2E/DX2                !
 ! A4    A(3,1,31)              96.5534         estimate D2E/DX2                !
 ! A5    A(1,3,7)              117.5095         estimate D2E/DX2                !
 ! A6    A(1,3,29)             100.1573         estimate D2E/DX2                !
 ! A7    A(7,3,33)             129.1188         estimate D2E/DX2                !
 ! A8    A(29,3,33)            161.9862         estimate D2E/DX2                !
 ! A9    A(5,4,6)              105.9549         estimate D2E/DX2                !
 ! A10   A(4,5,60)              91.9216         estimate D2E/DX2                !
 ! A11   A(3,7,8)              132.0325         estimate D2E/DX2                !
 ! A12   A(3,7,9)              116.2135         estimate D2E/DX2                !
 ! A13   A(8,7,9)              105.9549         estimate D2E/DX2                !
 ! A14   A(8,7,29)              97.7346         estimate D2E/DX2                !
 ! A15   A(9,7,29)             135.1745         estimate D2E/DX2                !
 ! A16   A(7,9,67)             151.0247         estimate D2E/DX2                !
 ! A17   A(7,9,69)             128.544          estimate D2E/DX2                !
 ! A18   A(7,9,81)             124.4131         estimate D2E/DX2                !
 ! A19   A(69,9,81)             88.3002         estimate D2E/DX2                !
 ! A20   A(11,10,12)           105.9549         estimate D2E/DX2                !
 ! A21   A(11,10,19)            94.3496         estimate D2E/DX2                !
 ! A22   A(11,10,20)           116.145          estimate D2E/DX2                !
 ! A23   A(12,10,19)           158.8927         estimate D2E/DX2                !
 ! A24   A(12,10,20)           137.8325         estimate D2E/DX2                !
 ! A25   A(14,13,15)           105.9549         estimate D2E/DX2                !
 ! A26   A(14,13,93)           130.1784         estimate D2E/DX2                !
 ! A27   A(15,13,93)           111.8821         estimate D2E/DX2                !
 ! A28   A(13,14,52)           144.1391         estimate D2E/DX2                !
 ! A29   A(13,14,61)            95.8393         estimate D2E/DX2                !
 ! A30   A(52,14,61)           106.5463         estimate D2E/DX2                !
 ! A31   A(17,16,18)           105.9549         estimate D2E/DX2                !
 ! A32   A(17,16,20)           112.1293         estimate D2E/DX2                !
 ! A33   A(18,16,20)            89.97           estimate D2E/DX2                !
 ! A34   A(16,18,31)           131.5341         estimate D2E/DX2                !
 ! A35   A(10,19,21)           159.6435         estimate D2E/DX2                !
 ! A36   A(10,19,26)            99.1119         estimate D2E/DX2                !
 ! A37   A(20,19,21)           105.9549         estimate D2E/DX2                !
 ! A38   A(10,20,16)           137.315          estimate D2E/DX2                !
 ! A39   A(16,20,19)           135.0471         estimate D2E/DX2                !
 ! A40   A(19,21,80)           131.6674         estimate D2E/DX2                !
 ! A41   A(23,22,24)           105.9549         estimate D2E/DX2                !
 ! A42   A(23,22,77)           142.2358         estimate D2E/DX2                !
 ! A43   A(24,22,77)            82.1557         estimate D2E/DX2                !
 ! A44   A(22,23,29)           124.6816         estimate D2E/DX2                !
 ! A45   A(22,24,78)           112.826          estimate D2E/DX2                !
 ! A46   A(26,25,27)           105.9549         estimate D2E/DX2                !
 ! A47   A(19,26,25)            97.5908         estimate D2E/DX2                !
 ! A48   A(19,26,80)            90.1281         estimate D2E/DX2                !
 ! A49   A(21,26,25)           109.9572         estimate D2E/DX2                !
 ! A50   A(25,26,80)           128.5436         estimate D2E/DX2                !
 ! A51   A(29,28,30)           105.9549         estimate D2E/DX2                !
 ! A52   A(3,29,23)            144.5426         estimate D2E/DX2                !
 ! A53   A(3,29,28)             87.984          estimate D2E/DX2                !
 ! A54   A(7,29,23)            124.3263         estimate D2E/DX2                !
 ! A55   A(7,29,28)            109.6277         estimate D2E/DX2                !
 ! A56   A(23,29,28)           122.7726         estimate D2E/DX2                !
 ! A57   A(28,30,88)           134.7818         estimate D2E/DX2                !
 ! A58   A(1,31,18)            150.8361         estimate D2E/DX2                !
 ! A59   A(1,31,32)             99.4271         estimate D2E/DX2                !
 ! A60   A(1,31,63)             92.791          estimate D2E/DX2                !
 ! A61   A(18,31,32)           109.602          estimate D2E/DX2                !
 ! A62   A(18,31,33)            92.7244         estimate D2E/DX2                !
 ! A63   A(18,31,63)            77.1278         estimate D2E/DX2                !
 ! A64   A(32,31,33)           105.9549         estimate D2E/DX2                !
 ! A65   A(32,31,63)           116.2958         estimate D2E/DX2                !
 ! A66   A(33,31,63)           137.5848         estimate D2E/DX2                !
 ! A67   A(31,32,48)           150.8782         estimate D2E/DX2                !
 ! A68   A(31,32,57)           112.2204         estimate D2E/DX2                !
 ! A69   A(31,32,73)           121.925          estimate D2E/DX2                !
 ! A70   A(48,32,57)            96.4641         estimate D2E/DX2                !
 ! A71   A(3,33,31)             96.1124         estimate D2E/DX2                !
 ! A72   A(35,34,36)           105.9549         estimate D2E/DX2                !
 ! A73   A(35,34,42)           131.3887         estimate D2E/DX2                !
 ! A74   A(36,34,42)           122.4443         estimate D2E/DX2                !
 ! A75   A(38,37,39)           105.9549         estimate D2E/DX2                !
 ! A76   A(37,38,48)           137.0182         estimate D2E/DX2                !
 ! A77   A(41,40,42)           105.9549         estimate D2E/DX2                !
 ! A78   A(34,42,40)           138.9032         estimate D2E/DX2                !
 ! A79   A(34,42,72)           139.8258         estimate D2E/DX2                !
 ! A80   A(44,43,45)           105.9549         estimate D2E/DX2                !
 ! A81   A(47,46,48)           105.9549         estimate D2E/DX2                !
 ! A82   A(47,46,51)            96.4091         estimate D2E/DX2                !
 ! A83   A(47,46,84)           147.1648         estimate D2E/DX2                !
 ! A84   A(48,46,51)           149.6756         estimate D2E/DX2                !
 ! A85   A(49,46,84)           104.3058         estimate D2E/DX2                !
 ! A86   A(51,46,84)            79.8237         estimate D2E/DX2                !
 ! A87   A(32,48,38)           158.3609         estimate D2E/DX2                !
 ! A88   A(32,48,46)           107.6567         estimate D2E/DX2                !
 ! A89   A(32,48,84)            92.0896         estimate D2E/DX2                !
 ! A90   A(38,48,46)            93.3918         estimate D2E/DX2                !
 ! A91   A(38,48,73)            91.1568         estimate D2E/DX2                !
 ! A92   A(38,48,84)            84.7881         estimate D2E/DX2                !
 ! A93   A(46,48,73)           164.7012         estimate D2E/DX2                !
 ! A94   A(73,48,84)           110.3804         estimate D2E/DX2                !
 ! A95   A(46,49,50)           155.7977         estimate D2E/DX2                !
 ! A96   A(47,49,50)           154.0087         estimate D2E/DX2                !
 ! A97   A(47,49,51)            96.9647         estimate D2E/DX2                !
 ! A98   A(50,49,51)           105.9549         estimate D2E/DX2                !
 ! A99   A(46,51,83)            77.9643         estimate D2E/DX2                !
 ! A100  A(49,51,83)           153.4833         estimate D2E/DX2                !
 ! A101  A(14,52,53)           139.1718         estimate D2E/DX2                !
 ! A102  A(14,52,54)           114.8686         estimate D2E/DX2                !
 ! A103  A(53,52,54)           105.9549         estimate D2E/DX2                !
 ! A104  A(43,55,56)           106.7937         estimate D2E/DX2                !
 ! A105  A(43,55,57)           146.0138         estimate D2E/DX2                !
 ! A106  A(44,55,45)            35.2462         estimate D2E/DX2                !
 ! A107  A(44,55,56)           105.6969         estimate D2E/DX2                !
 ! A108  A(44,55,57)           135.4609         estimate D2E/DX2                !
 ! A109  A(45,55,56)           126.3552         estimate D2E/DX2                !
 ! A110  A(45,55,57)           127.6883         estimate D2E/DX2                !
 ! A111  A(56,55,57)           105.9549         estimate D2E/DX2                !
 ! A112  A(32,57,55)           129.4666         estimate D2E/DX2                !
 ! A113  A(32,57,75)            83.5202         estimate D2E/DX2                !
 ! A114  A(55,57,73)           151.595          estimate D2E/DX2                !
 ! A115  A(55,57,75)           140.3829         estimate D2E/DX2                !
 ! A116  A(59,58,60)           105.9549         estimate D2E/DX2                !
 ! A117  A(59,58,81)           158.8485         estimate D2E/DX2                !
 ! A118  A(58,59,85)           106.255          estimate D2E/DX2                !
 ! A119  A(58,59,87)            96.4801         estimate D2E/DX2                !
 ! A120  A(5,60,58)            144.7577         estimate D2E/DX2                !
 ! A121  A(5,60,81)             73.258          estimate D2E/DX2                !
 ! A122  A(14,61,62)           112.5396         estimate D2E/DX2                !
 ! A123  A(14,61,63)            93.3005         estimate D2E/DX2                !
 ! A124  A(62,61,63)           105.9549         estimate D2E/DX2                !
 ! A125  A(31,63,61)           108.1089         estimate D2E/DX2                !
 ! A126  A(65,64,66)           105.9549         estimate D2E/DX2                !
 ! A127  A(66,64,90)            99.3037         estimate D2E/DX2                !
 ! A128  A(64,65,82)           133.0498         estimate D2E/DX2                !
 ! A129  A(82,65,90)           143.4976         estimate D2E/DX2                !
 ! A130  A(9,67,68)            106.8268         estimate D2E/DX2                !
 ! A131  A(68,67,69)           105.9549         estimate D2E/DX2                !
 ! A132  A(68,67,81)           109.6244         estimate D2E/DX2                !
 ! A133  A(69,67,81)           124.7363         estimate D2E/DX2                !
 ! A134  A(67,68,70)           154.7301         estimate D2E/DX2                !
 ! A135  A(68,70,71)           105.3646         estimate D2E/DX2                !
 ! A136  A(68,70,72)           128.0896         estimate D2E/DX2                !
 ! A137  A(71,70,72)           105.9549         estimate D2E/DX2                !
 ! A138  A(40,72,70)           112.5123         estimate D2E/DX2                !
 ! A139  A(42,72,70)           101.7292         estimate D2E/DX2                !
 ! A140  A(32,73,74)           105.8449         estimate D2E/DX2                !
 ! A141  A(32,73,75)           123.7997         estimate D2E/DX2                !
 ! A142  A(48,73,57)            73.8934         estimate D2E/DX2                !
 ! A143  A(48,73,74)           115.5383         estimate D2E/DX2                !
 ! A144  A(48,73,75)           138.4929         estimate D2E/DX2                !
 ! A145  A(57,73,74)           136.7132         estimate D2E/DX2                !
 ! A146  A(74,73,75)           105.9549         estimate D2E/DX2                !
 ! A147  A(77,76,78)           105.9549         estimate D2E/DX2                !
 ! A148  A(77,76,94)           164.0564         estimate D2E/DX2                !
 ! A149  A(22,77,76)           122.8272         estimate D2E/DX2                !
 ! A150  A(24,78,76)           111.446          estimate D2E/DX2                !
 ! A151  A(24,78,94)           147.4304         estimate D2E/DX2                !
 ! A152  A(24,78,96)           143.7669         estimate D2E/DX2                !
 ! A153  A(76,78,96)            96.1515         estimate D2E/DX2                !
 ! A154  A(80,79,81)           105.9549         estimate D2E/DX2                !
 ! A155  A(21,80,79)           128.1002         estimate D2E/DX2                !
 ! A156  A(26,80,79)           144.7399         estimate D2E/DX2                !
 ! A157  A(9,81,58)            101.0201         estimate D2E/DX2                !
 ! A158  A(9,81,60)            116.4537         estimate D2E/DX2                !
 ! A159  A(9,81,79)            123.9147         estimate D2E/DX2                !
 ! A160  A(58,81,67)            83.0918         estimate D2E/DX2                !
 ! A161  A(58,81,79)           131.6132         estimate D2E/DX2                !
 ! A162  A(60,81,67)           109.3613         estimate D2E/DX2                !
 ! A163  A(60,81,79)           119.5288         estimate D2E/DX2                !
 ! A164  A(67,81,79)           106.0684         estimate D2E/DX2                !
 ! A165  A(65,82,83)            86.9708         estimate D2E/DX2                !
 ! A166  A(65,82,84)           146.5825         estimate D2E/DX2                !
 ! A167  A(83,82,84)           105.9549         estimate D2E/DX2                !
 ! A168  A(51,83,82)            98.4965         estimate D2E/DX2                !
 ! A169  A(46,84,82)           106.3829         estimate D2E/DX2                !
 ! A170  A(48,84,82)           130.2733         estimate D2E/DX2                !
 ! A171  A(59,85,86)            95.5516         estimate D2E/DX2                !
 ! A172  A(86,85,87)           105.9549         estimate D2E/DX2                !
 ! A173  A(30,88,89)           129.5825         estimate D2E/DX2                !
 ! A174  A(30,88,90)           108.4582         estimate D2E/DX2                !
 ! A175  A(89,88,90)           105.9549         estimate D2E/DX2                !
 ! A176  A(64,90,88)           111.2607         estimate D2E/DX2                !
 ! A177  A(65,90,88)            98.6462         estimate D2E/DX2                !
 ! A178  A(92,91,93)           105.9549         estimate D2E/DX2                !
 ! A179  A(92,91,95)            97.2814         estimate D2E/DX2                !
 ! A180  A(93,91,95)           114.5061         estimate D2E/DX2                !
 ! A181  A(13,93,91)           124.3622         estimate D2E/DX2                !
 ! A182  A(76,94,95)           154.391          estimate D2E/DX2                !
 ! A183  A(76,94,96)            96.8106         estimate D2E/DX2                !
 ! A184  A(95,94,96)           105.9549         estimate D2E/DX2                !
 ! A185  A(91,95,94)           126.0062         estimate D2E/DX2                !
 ! A186  L(20,19,26,1,-1)      175.6775         estimate D2E/DX2                !
 ! A187  L(41,40,72,4,-1)      190.1519         estimate D2E/DX2                !
 ! A188  L(48,46,49,1,-1)      173.3145         estimate D2E/DX2                !
 ! A189  L(78,94,95,10,-1)     179.0996         estimate D2E/DX2                !
 ! A190  L(20,19,26,1,-2)      165.9853         estimate D2E/DX2                !
 ! A191  L(41,40,72,4,-2)      186.2112         estimate D2E/DX2                !
 ! A192  L(48,46,49,1,-2)      175.7202         estimate D2E/DX2                !
 ! A193  L(78,94,95,10,-2)     178.1993         estimate D2E/DX2                !
 ! D1    D(2,1,3,7)             22.1471         estimate D2E/DX2                !
 ! D2    D(2,1,3,29)           -48.7898         estimate D2E/DX2                !
 ! D3    D(31,1,3,7)          -144.0875         estimate D2E/DX2                !
 ! D4    D(31,1,3,29)          144.9756         estimate D2E/DX2                !
 ! D5    D(2,1,31,18)          -30.1108         estimate D2E/DX2                !
 ! D6    D(2,1,31,32)          155.3912         estimate D2E/DX2                !
 ! D7    D(2,1,31,63)           38.1526         estimate D2E/DX2                !
 ! D8    D(3,1,31,18)          118.8166         estimate D2E/DX2                !
 ! D9    D(3,1,31,32)          -55.6815         estimate D2E/DX2                !
 ! D10   D(3,1,31,63)         -172.9201         estimate D2E/DX2                !
 ! D11   D(1,3,7,8)           -170.7612         estimate D2E/DX2                !
 ! D12   D(1,3,7,9)             40.3326         estimate D2E/DX2                !
 ! D13   D(33,3,7,8)            95.3129         estimate D2E/DX2                !
 ! D14   D(33,3,7,9)           -53.5934         estimate D2E/DX2                !
 ! D15   D(1,3,29,23)           29.5533         estimate D2E/DX2                !
 ! D16   D(1,3,29,28)         -122.6099         estimate D2E/DX2                !
 ! D17   D(33,3,29,23)         104.9778         estimate D2E/DX2                !
 ! D18   D(33,3,29,28)         -47.1853         estimate D2E/DX2                !
 ! D19   D(7,3,33,31)          162.5889         estimate D2E/DX2                !
 ! D20   D(29,3,33,31)         -30.7977         estimate D2E/DX2                !
 ! D21   D(6,4,5,60)          -143.3227         estimate D2E/DX2                !
 ! D22   D(4,5,60,58)         -179.6913         estimate D2E/DX2                !
 ! D23   D(4,5,60,81)         -142.5888         estimate D2E/DX2                !
 ! D24   D(3,7,9,67)           171.3219         estimate D2E/DX2                !
 ! D25   D(3,7,9,69)          -167.4379         estimate D2E/DX2                !
 ! D26   D(3,7,9,81)            72.5754         estimate D2E/DX2                !
 ! D27   D(8,7,9,67)            14.8352         estimate D2E/DX2                !
 ! D28   D(8,7,9,69)            36.0755         estimate D2E/DX2                !
 ! D29   D(8,7,9,81)           -83.9113         estimate D2E/DX2                !
 ! D30   D(29,7,9,67)         -104.2562         estimate D2E/DX2                !
 ! D31   D(29,7,9,69)          -83.0159         estimate D2E/DX2                !
 ! D32   D(29,7,9,81)          156.9973         estimate D2E/DX2                !
 ! D33   D(8,7,29,23)          -92.1255         estimate D2E/DX2                !
 ! D34   D(8,7,29,28)           67.8275         estimate D2E/DX2                !
 ! D35   D(9,7,29,23)           29.8908         estimate D2E/DX2                !
 ! D36   D(9,7,29,28)         -170.1562         estimate D2E/DX2                !
 ! D37   D(7,9,67,68)          141.5741         estimate D2E/DX2                !
 ! D38   D(7,9,81,58)           74.0168         estimate D2E/DX2                !
 ! D39   D(7,9,81,60)           51.4244         estimate D2E/DX2                !
 ! D40   D(7,9,81,79)         -124.8606         estimate D2E/DX2                !
 ! D41   D(69,9,81,58)         -63.3165         estimate D2E/DX2                !
 ! D42   D(69,9,81,60)         -85.9088         estimate D2E/DX2                !
 ! D43   D(69,9,81,79)          97.8062         estimate D2E/DX2                !
 ! D44   D(11,10,19,21)        107.7554         estimate D2E/DX2                !
 ! D45   D(11,10,19,26)          6.4904         estimate D2E/DX2                !
 ! D46   D(12,10,19,21)        -56.5171         estimate D2E/DX2                !
 ! D47   D(12,10,19,26)       -157.7822         estimate D2E/DX2                !
 ! D48   D(11,10,20,16)        178.9344         estimate D2E/DX2                !
 ! D49   D(12,10,20,16)         -4.5802         estimate D2E/DX2                !
 ! D50   D(15,13,14,52)         97.2204         estimate D2E/DX2                !
 ! D51   D(15,13,14,61)       -133.7179         estimate D2E/DX2                !
 ! D52   D(93,13,14,52)        -41.2625         estimate D2E/DX2                !
 ! D53   D(93,13,14,61)         87.7992         estimate D2E/DX2                !
 ! D54   D(14,13,93,91)         53.7273         estimate D2E/DX2                !
 ! D55   D(15,13,93,91)        -82.8961         estimate D2E/DX2                !
 ! D56   D(13,14,52,53)       -144.0393         estimate D2E/DX2                !
 ! D57   D(13,14,52,54)         36.8908         estimate D2E/DX2                !
 ! D58   D(61,14,52,53)         89.649          estimate D2E/DX2                !
 ! D59   D(61,14,52,54)        -89.4209         estimate D2E/DX2                !
 ! D60   D(13,14,61,62)       -108.9236         estimate D2E/DX2                !
 ! D61   D(13,14,61,63)        142.2899         estimate D2E/DX2                !
 ! D62   D(52,14,61,62)         42.7483         estimate D2E/DX2                !
 ! D63   D(52,14,61,63)        -66.0382         estimate D2E/DX2                !
 ! D64   D(17,16,18,31)        -52.1338         estimate D2E/DX2                !
 ! D65   D(20,16,18,31)         60.9228         estimate D2E/DX2                !
 ! D66   D(17,16,20,10)       -144.7582         estimate D2E/DX2                !
 ! D67   D(17,16,20,19)          2.773          estimate D2E/DX2                !
 ! D68   D(18,16,20,10)        107.9927         estimate D2E/DX2                !
 ! D69   D(18,16,20,19)       -104.4762         estimate D2E/DX2                !
 ! D70   D(16,18,31,1)         -38.5932         estimate D2E/DX2                !
 ! D71   D(16,18,31,32)        135.6444         estimate D2E/DX2                !
 ! D72   D(16,18,31,33)         27.6413         estimate D2E/DX2                !
 ! D73   D(16,18,31,63)       -110.7149         estimate D2E/DX2                !
 ! D74   D(21,19,20,16)          0.2922         estimate D2E/DX2                !
 ! D75   D(16,20,26,25)       -129.9291         estimate D2E/DX2                !
 ! D76   D(16,20,26,80)         -0.2179         estimate D2E/DX2                !
 ! D77   D(10,19,21,80)       -115.2431         estimate D2E/DX2                !
 ! D78   D(20,19,21,80)        159.3426         estimate D2E/DX2                !
 ! D79   D(10,19,26,25)         39.596          estimate D2E/DX2                !
 ! D80   D(10,19,26,80)        168.5664         estimate D2E/DX2                !
 ! D81   D(19,21,80,79)        146.5614         estimate D2E/DX2                !
 ! D82   D(24,22,23,29)          7.3796         estimate D2E/DX2                !
 ! D83   D(77,22,23,29)        -90.5098         estimate D2E/DX2                !
 ! D84   D(23,22,24,78)       -151.3563         estimate D2E/DX2                !
 ! D85   D(77,22,24,78)         -9.1156         estimate D2E/DX2                !
 ! D86   D(23,22,77,76)        107.649          estimate D2E/DX2                !
 ! D87   D(24,22,77,76)          1.6723         estimate D2E/DX2                !
 ! D88   D(22,23,29,3)         -30.2257         estimate D2E/DX2                !
 ! D89   D(22,23,29,7)         -86.5184         estimate D2E/DX2                !
 ! D90   D(22,23,29,28)        116.0629         estimate D2E/DX2                !
 ! D91   D(22,24,78,76)         25.8786         estimate D2E/DX2                !
 ! D92   D(22,24,78,94)        115.3797         estimate D2E/DX2                !
 ! D93   D(22,24,78,96)        162.8366         estimate D2E/DX2                !
 ! D94   D(27,25,26,19)       -162.7362         estimate D2E/DX2                !
 ! D95   D(27,25,26,21)        173.1741         estimate D2E/DX2                !
 ! D96   D(27,25,26,80)        101.0031         estimate D2E/DX2                !
 ! D97   D(19,26,80,79)       -108.358          estimate D2E/DX2                !
 ! D98   D(25,26,80,79)         -8.5309         estimate D2E/DX2                !
 ! D99   D(30,28,29,3)         175.56           estimate D2E/DX2                !
 ! D100  D(30,28,29,7)        -145.9717         estimate D2E/DX2                !
 ! D101  D(30,28,29,23)         14.3536         estimate D2E/DX2                !
 ! D102  D(29,28,30,88)        101.9714         estimate D2E/DX2                !
 ! D103  D(28,30,88,89)        138.2791         estimate D2E/DX2                !
 ! D104  D(28,30,88,90)          7.5894         estimate D2E/DX2                !
 ! D105  D(1,31,32,48)         -85.5155         estimate D2E/DX2                !
 ! D106  D(1,31,32,57)         105.0103         estimate D2E/DX2                !
 ! D107  D(1,31,32,73)        -179.7093         estimate D2E/DX2                !
 ! D108  D(18,31,32,48)         97.3274         estimate D2E/DX2                !
 ! D109  D(18,31,32,57)        -72.1468         estimate D2E/DX2                !
 ! D110  D(18,31,32,73)          3.1336         estimate D2E/DX2                !
 ! D111  D(33,31,32,48)       -163.7968         estimate D2E/DX2                !
 ! D112  D(33,31,32,57)         26.729          estimate D2E/DX2                !
 ! D113  D(33,31,32,73)        102.0093         estimate D2E/DX2                !
 ! D114  D(63,31,32,48)         12.3647         estimate D2E/DX2                !
 ! D115  D(63,31,32,57)       -157.1095         estimate D2E/DX2                !
 ! D116  D(63,31,32,73)        -81.8291         estimate D2E/DX2                !
 ! D117  D(18,31,33,3)        -169.67           estimate D2E/DX2                !
 ! D118  D(32,31,33,3)          79.05           estimate D2E/DX2                !
 ! D119  D(63,31,33,3)         -95.8452         estimate D2E/DX2                !
 ! D120  D(1,31,63,61)          97.1998         estimate D2E/DX2                !
 ! D121  D(18,31,63,61)       -110.4671         estimate D2E/DX2                !
 ! D122  D(32,31,63,61)         -4.7472         estimate D2E/DX2                !
 ! D123  D(33,31,63,61)        169.777          estimate D2E/DX2                !
 ! D124  D(31,32,48,38)       -140.0651         estimate D2E/DX2                !
 ! D125  D(31,32,48,46)         53.8315         estimate D2E/DX2                !
 ! D126  D(31,32,48,84)        138.8245         estimate D2E/DX2                !
 ! D127  D(57,32,48,38)         30.1358         estimate D2E/DX2                !
 ! D128  D(57,32,48,46)       -135.9676         estimate D2E/DX2                !
 ! D129  D(57,32,48,84)        -50.9746         estimate D2E/DX2                !
 ! D130  D(31,32,57,55)        -92.691          estimate D2E/DX2                !
 ! D131  D(31,32,57,75)        111.7019         estimate D2E/DX2                !
 ! D132  D(48,32,57,55)         92.4422         estimate D2E/DX2                !
 ! D133  D(48,32,57,75)        -63.1648         estimate D2E/DX2                !
 ! D134  D(31,32,73,74)         37.0097         estimate D2E/DX2                !
 ! D135  D(31,32,73,75)        -85.2563         estimate D2E/DX2                !
 ! D136  D(35,34,42,40)        -84.9848         estimate D2E/DX2                !
 ! D137  D(35,34,42,72)         91.2583         estimate D2E/DX2                !
 ! D138  D(36,34,42,40)        101.0916         estimate D2E/DX2                !
 ! D139  D(36,34,42,72)        -82.6654         estimate D2E/DX2                !
 ! D140  D(39,37,38,48)        -15.8204         estimate D2E/DX2                !
 ! D141  D(37,38,48,32)        115.0855         estimate D2E/DX2                !
 ! D142  D(37,38,48,46)        -78.1679         estimate D2E/DX2                !
 ! D143  D(37,38,48,73)         87.2185         estimate D2E/DX2                !
 ! D144  D(37,38,48,84)       -162.421          estimate D2E/DX2                !
 ! D145  D(41,40,42,34)        -14.2175         estimate D2E/DX2                !
 ! D146  D(41,40,42,72)        168.2339         estimate D2E/DX2                !
 ! D147  D(34,42,72,70)        -54.9598         estimate D2E/DX2                !
 ! D148  D(44,43,45,55)        -66.5357         estimate D2E/DX2                !
 ! D149  D(47,46,48,32)        -55.1997         estimate D2E/DX2                !
 ! D150  D(47,46,48,38)        129.8903         estimate D2E/DX2                !
 ! D151  D(47,46,48,73)         22.8339         estimate D2E/DX2                !
 ! D152  D(51,46,48,32)         80.7489         estimate D2E/DX2                !
 ! D153  D(51,46,48,38)        -94.1612         estimate D2E/DX2                !
 ! D154  D(51,46,48,73)        158.7825         estimate D2E/DX2                !
 ! D155  D(32,48,49,50)       -175.5607         estimate D2E/DX2                !
 ! D156  D(38,48,49,50)         10.9625         estimate D2E/DX2                !
 ! D157  D(73,48,49,50)       -117.0299         estimate D2E/DX2                !
 ! D158  D(84,46,49,50)         99.9787         estimate D2E/DX2                !
 ! D159  D(47,46,51,83)        163.7227         estimate D2E/DX2                !
 ! D160  D(48,46,51,83)         26.0003         estimate D2E/DX2                !
 ! D161  D(84,46,51,83)         16.7019         estimate D2E/DX2                !
 ! D162  D(47,46,84,82)        -74.58           estimate D2E/DX2                !
 ! D163  D(49,46,84,82)         10.4296         estimate D2E/DX2                !
 ! D164  D(51,46,84,82)         11.4636         estimate D2E/DX2                !
 ! D165  D(38,48,73,57)        122.3834         estimate D2E/DX2                !
 ! D166  D(38,48,73,74)       -103.0494         estimate D2E/DX2                !
 ! D167  D(38,48,73,75)         75.3529         estimate D2E/DX2                !
 ! D168  D(46,48,73,57)       -130.2735         estimate D2E/DX2                !
 ! D169  D(46,48,73,74)          4.2937         estimate D2E/DX2                !
 ! D170  D(46,48,73,75)       -177.304          estimate D2E/DX2                !
 ! D171  D(84,48,73,57)         37.5138         estimate D2E/DX2                !
 ! D172  D(84,48,73,74)        172.081          estimate D2E/DX2                !
 ! D173  D(84,48,73,75)         -9.5167         estimate D2E/DX2                !
 ! D174  D(32,48,84,82)        -86.7009         estimate D2E/DX2                !
 ! D175  D(38,48,84,82)        114.7585         estimate D2E/DX2                !
 ! D176  D(73,48,84,82)       -155.9441         estimate D2E/DX2                !
 ! D177  D(47,49,51,83)         45.3471         estimate D2E/DX2                !
 ! D178  D(50,49,51,83)       -122.273          estimate D2E/DX2                !
 ! D179  D(46,51,83,82)        -62.4931         estimate D2E/DX2                !
 ! D180  D(49,51,83,82)        -95.4277         estimate D2E/DX2                !
 ! D181  D(43,55,57,32)         13.2186         estimate D2E/DX2                !
 ! D182  D(43,55,57,73)        125.1716         estimate D2E/DX2                !
 ! D183  D(43,55,57,75)        153.1624         estimate D2E/DX2                !
 ! D184  D(44,55,57,32)         43.534          estimate D2E/DX2                !
 ! D185  D(44,55,57,73)        155.4869         estimate D2E/DX2                !
 ! D186  D(44,55,57,75)       -176.5222         estimate D2E/DX2                !
 ! D187  D(45,55,57,32)         -3.1302         estimate D2E/DX2                !
 ! D188  D(45,55,57,73)        108.8228         estimate D2E/DX2                !
 ! D189  D(45,55,57,75)        136.8137         estimate D2E/DX2                !
 ! D190  D(56,55,57,32)        177.3            estimate D2E/DX2                !
 ! D191  D(56,55,57,73)        -70.7471         estimate D2E/DX2                !
 ! D192  D(56,55,57,75)        -42.7562         estimate D2E/DX2                !
 ! D193  D(55,57,73,48)        -83.4349         estimate D2E/DX2                !
 ! D194  D(55,57,73,74)        166.2069         estimate D2E/DX2                !
 ! D195  D(60,58,59,85)         51.1559         estimate D2E/DX2                !
 ! D196  D(60,58,59,87)         76.174          estimate D2E/DX2                !
 ! D197  D(81,58,59,85)        142.3048         estimate D2E/DX2                !
 ! D198  D(81,58,59,87)        167.3229         estimate D2E/DX2                !
 ! D199  D(59,58,60,5)        -165.6963         estimate D2E/DX2                !
 ! D200  D(59,58,81,9)         133.9772         estimate D2E/DX2                !
 ! D201  D(59,58,81,67)         80.4084         estimate D2E/DX2                !
 ! D202  D(59,58,81,79)        -24.9762         estimate D2E/DX2                !
 ! D203  D(58,59,85,86)        176.1552         estimate D2E/DX2                !
 ! D204  D(5,60,81,9)         -100.8289         estimate D2E/DX2                !
 ! D205  D(5,60,81,67)        -161.9455         estimate D2E/DX2                !
 ! D206  D(5,60,81,79)          75.6281         estimate D2E/DX2                !
 ! D207  D(14,61,63,31)       -106.1125         estimate D2E/DX2                !
 ! D208  D(62,61,63,31)        139.316          estimate D2E/DX2                !
 ! D209  D(66,64,65,82)         64.9244         estimate D2E/DX2                !
 ! D210  D(65,64,66,90)         79.0424         estimate D2E/DX2                !
 ! D211  D(66,64,90,88)         43.763          estimate D2E/DX2                !
 ! D212  D(64,65,82,83)        -75.5508         estimate D2E/DX2                !
 ! D213  D(64,65,82,84)         39.2593         estimate D2E/DX2                !
 ! D214  D(90,65,82,83)         71.9723         estimate D2E/DX2                !
 ! D215  D(90,65,82,84)       -173.2176         estimate D2E/DX2                !
 ! D216  D(82,65,90,88)        -31.6914         estimate D2E/DX2                !
 ! D217  D(9,67,68,70)         106.9646         estimate D2E/DX2                !
 ! D218  D(69,67,68,70)       -178.9373         estimate D2E/DX2                !
 ! D219  D(81,67,68,70)         44.0828         estimate D2E/DX2                !
 ! D220  D(68,67,81,58)       -153.3641         estimate D2E/DX2                !
 ! D221  D(68,67,81,60)       -152.1236         estimate D2E/DX2                !
 ! D222  D(68,67,81,79)        -21.9685         estimate D2E/DX2                !
 ! D223  D(69,67,81,58)         79.5974         estimate D2E/DX2                !
 ! D224  D(69,67,81,60)         80.8379         estimate D2E/DX2                !
 ! D225  D(69,67,81,79)       -149.007          estimate D2E/DX2                !
 ! D226  D(67,68,70,71)        -15.3803         estimate D2E/DX2                !
 ! D227  D(67,68,70,72)       -140.6606         estimate D2E/DX2                !
 ! D228  D(68,70,72,40)         17.6647         estimate D2E/DX2                !
 ! D229  D(68,70,72,42)         -1.9621         estimate D2E/DX2                !
 ! D230  D(71,70,72,40)       -107.3806         estimate D2E/DX2                !
 ! D231  D(71,70,72,42)       -127.0074         estimate D2E/DX2                !
 ! D232  D(78,76,77,22)         16.6235         estimate D2E/DX2                !
 ! D233  D(94,76,77,22)       -100.2275         estimate D2E/DX2                !
 ! D234  D(77,76,78,24)        -20.1781         estimate D2E/DX2                !
 ! D235  D(77,76,78,96)       -176.2391         estimate D2E/DX2                !
 ! D236  D(77,76,94,95)        -64.1541         estimate D2E/DX2                !
 ! D237  D(77,76,94,96)        143.0163         estimate D2E/DX2                !
 ! D238  D(24,78,95,91)         27.2287         estimate D2E/DX2                !
 ! D239  D(81,79,80,21)        125.045          estimate D2E/DX2                !
 ! D240  D(81,79,80,26)       -159.8174         estimate D2E/DX2                !
 ! D241  D(80,79,81,9)          27.1488         estimate D2E/DX2                !
 ! D242  D(80,79,81,58)       -177.9873         estimate D2E/DX2                !
 ! D243  D(80,79,81,60)       -149.0285         estimate D2E/DX2                !
 ! D244  D(80,79,81,67)         86.9392         estimate D2E/DX2                !
 ! D245  D(65,82,83,51)       -114.5694         estimate D2E/DX2                !
 ! D246  D(84,82,83,51)         96.7583         estimate D2E/DX2                !
 ! D247  D(65,82,84,46)        178.6941         estimate D2E/DX2                !
 ! D248  D(65,82,84,48)        169.6248         estimate D2E/DX2                !
 ! D249  D(83,82,84,46)        -71.8248         estimate D2E/DX2                !
 ! D250  D(83,82,84,48)        -80.8941         estimate D2E/DX2                !
 ! D251  D(59,85,86,87)        -74.7341         estimate D2E/DX2                !
 ! D252  D(30,88,90,64)         65.1401         estimate D2E/DX2                !
 ! D253  D(30,88,90,65)         44.5871         estimate D2E/DX2                !
 ! D254  D(89,88,90,64)        -77.429          estimate D2E/DX2                !
 ! D255  D(89,88,90,65)        -97.982          estimate D2E/DX2                !
 ! D256  D(92,91,93,13)        -55.3013         estimate D2E/DX2                !
 ! D257  D(95,91,93,13)         50.6724         estimate D2E/DX2                !
 ! D258  D(92,91,95,94)        100.9545         estimate D2E/DX2                !
 ! D259  D(93,91,95,94)        -10.3175         estimate D2E/DX2                !
 ! D260  D(76,94,95,91)        132.1086         estimate D2E/DX2                !
 ! D261  D(96,94,95,91)        -76.0285         estimate D2E/DX2                !
 --------------------------------------------------------------------------------
 Trust Radius=3.00D-01 FncErr=1.00D-07 GrdErr=1.00D-06 EigMax=2.50D+02 EigMin=1.00D-04
 Number of steps in this run=    576 maximum allowed number of steps=    576.
 GradGradGradGradGradGradGradGradGradGradGradGradGradGradGradGradGradGrad

 Stoichiometry    H64O32
 Framework group  C1[X(H64O32)]
 Deg. of freedom   282
 Full point group                 C1      NOp   1
 Largest Abelian subgroup         C1      NOp   1
 Largest concise Abelian subgroup C1      NOp   1
                         Standard orientation:                         
 ---------------------------------------------------------------------
 Center     Atomic      Atomic             Coordinates (Angstroms)
 Number     Number       Type             X           Y           Z
 ---------------------------------------------------------------------
      1          8           0        0.079897   -0.118464    0.009711
      2          1           0        0.046063   -0.602731    0.838234
      3          1           0        0.693298    0.606419    0.152519
      4          8           0        4.720466    0.115742   -2.767145
      5          1           0        3.990490    0.092431   -2.143684
      6          1           0        4.460399    0.733135   -3.455113
      7          8           0        2.053097    0.405971    1.655882
      8          1           0        2.670765    1.026012    2.051035
      9          1           0        2.451020   -0.462338    1.754910
     10          8           0       -0.559527   -5.114656   -3.206869
     11          1           0       -0.620990   -5.564240   -2.360579
     12          1           0       -0.995551   -5.687496   -3.842359
     13          8           0       -3.722413   -0.879780   -0.499980
     14          1           0       -3.305182   -1.722921   -0.692703
     15          1           0       -3.397395   -0.615850    0.364204
     16          8           0        1.011969   -1.327532   -4.754638
     17          1           0        1.835700   -0.885407   -4.535313
     18          1           0        0.312226   -0.770636   -4.404872
     19          8           0        0.843787   -3.329411   -2.364969
     20          1           0        0.456789   -3.009706   -3.183584
     21          1           0        1.626707   -2.793666   -2.216227
     22          8           0       -2.151966    0.278014    4.827886
     23          1           0       -1.505879    0.982865    4.739194
     24          1           0       -2.143218   -0.194779    3.992122
     25          8           0        1.272536   -4.955048   -0.744305
     26          1           0        1.170614   -4.028439   -0.513832
     27          1           0        1.163707   -5.444295    0.074782
     28          8           0       -0.383301    2.444642    2.081610
     29          1           0       -0.272346    1.597790    2.520520
     30          1           0       -0.808098    3.020279    2.722156
     31          8           0       -0.006431    0.065337   -2.435123
     32          1           0       -0.271946    0.984749   -2.514454
     33          1           0        0.933370    0.078031   -2.238342
     34          8           0        0.447238   -1.592335    4.933208
     35          1           0        0.767228   -0.690628    5.014704
     36          1           0        0.047089   -1.807886    5.779098
     37          8           0       -3.671804    4.514016   -3.625217
     38          1           0       -2.840305    4.294892   -3.197778
     39          1           0       -3.995592    3.695099   -4.008162
     40          8           0        0.234856   -3.420674    2.364972
     41          1           0       -0.611988   -2.968029    2.373760
     42          1           0        0.669324   -3.183792    3.187914
     43          8           0        3.114218    3.282806   -0.263883
     44          1           0        3.462141    2.454758   -0.603585
     45          1           0        2.186346    3.121973   -0.076012
     46          8           0       -2.376482    2.449427   -1.786480
     47          1           0       -2.686056    1.540431   -1.786852
     48          1           0       -1.838526    2.545387   -2.576103
     49          8           0       -3.381196    2.181277    0.239790
     50          1           0       -4.045952    2.336415    0.915173
     51          1           0       -2.681354    2.817110    0.407267
     52          8           0       -3.603212   -4.045836   -0.635365
     53          1           0       -3.090549   -4.840248   -0.467448
     54          1           0       -4.490867   -4.344447   -0.847520
     55          8           0        2.159447    2.895907   -2.650669
     56          1           0        2.772055    3.307952   -3.264705
     57          1           0        1.541501    2.396210   -3.189701
     58          8           0        5.697105   -0.210762    0.873534
     59          1           0        6.612214   -0.029443    1.101154
     60          1           0        5.641740   -0.130066   -0.081732
     61          8           0       -2.736055   -1.231765   -2.692230
     62          1           0       -3.252236   -1.705662   -3.348804
     63          1           0       -1.899098   -1.698067   -2.627610
     64          8           0        1.079602    5.906492    1.805249
     65          1           0        0.701876    5.036963    1.652429
     66          1           0        0.339237    6.517951    1.814696
     67          8           0        3.915283   -1.788532    2.653397
     68          1           0        3.474317   -2.628120    2.804236
     69          1           0        3.576315   -1.188467    3.322078
     70          8           0        3.068024   -4.618208    2.429718
     71          1           0        3.428048   -4.791439    1.556515
     72          1           0        2.218488   -5.064950    2.458356
     73          8           0       -0.682689    2.244991   -5.093146
     74          1           0       -1.079006    1.573114   -5.653168
     75          1           0        0.021530    2.640054   -5.612869
     76          8           0       -4.724133   -0.632870    3.967756
     77          1           0       -4.333168   -0.135565    4.690213
     78          1           0       -3.997681   -1.093368    3.540768
     79          8           0        3.873917   -2.176806   -0.094854
     80          1           0        2.928176   -2.323075   -0.174169
     81          1           0        3.973924   -1.330140    0.347034
     82          8           0       -0.611482    3.944268   -0.426562
     83          1           0       -1.373873    4.458078   -0.149308
     84          1           0       -0.678151    3.867268   -1.381411
     85          8           0        7.108351    1.810628    0.153894
     86          1           0        7.992504    1.870117    0.523819
     87          1           0        6.507389    2.031676    0.869501
     88          8           0       -0.041130    4.823899    4.205669
     89          1           0       -0.454128    5.666826    4.408198
     90          1           0        0.874395    5.022450    3.994714
     91          8           0       -6.491952   -0.700974   -0.513376
     92          1           0       -6.421592   -1.593604   -0.860322
     93          1           0       -5.712927   -0.234287   -0.825519
     94          8           0       -5.683943   -1.170100    2.248570
     95          1           0       -6.444755   -1.238385    1.666665
     96          1           0       -5.115195   -1.911579    2.027560
 ---------------------------------------------------------------------
 Rotational constants (GHZ):           0.0565285           0.0498063           0.0465673
 Standard basis: 6-31G(d) (6D, 7F)
 There are   608 symmetry adapted cartesian basis functions of A   symmetry.
 There are   608 symmetry adapted basis functions of A   symmetry.
   608 basis functions,  1152 primitive gaussians,   608 cartesian basis functions
   160 alpha electrons      160 beta electrons
       nuclear repulsion energy      4671.9345838333 Hartrees.
 NAtoms=   96 NActive=   96 NUniq=   96 SFac= 1.00D+00 NAtFMM=   60 NAOKFM=T Big=T
 Integral buffers will be    131072 words long.
 Raffenetti 2 integral format.
 Two-electron integral symmetry is turned on.
 Nuclear repulsion after empirical dispersion term =     4671.8803727246 Hartrees.
 One-electron integrals computed using PRISM.
 NBasis=   608 RedAO= T EigKep=  1.32D-02  NBF=   608
 NBsUse=   608 1.00D-06 EigRej= -1.00D+00 NBFU=   608
 ExpMin= 1.61D-01 ExpMax= 5.48D+03 ExpMxC= 8.25D+02 IAcc=3 IRadAn=         5 AccDes= 0.00D+00
 Harris functional with IExCor= 4639 and IRadAn=       5 diagonalized for initial guess.
 HarFok:  IExCor= 4639 AccDes= 0.00D+00 IRadAn=         5 IDoV= 1 UseB2=F ITyADJ=14
 ICtDFT=  3500011 ScaDFX=  1.000000  1.000000  1.000000  1.000000
 FoFCou: FMM=F IPFlag=           0 FMFlag=      100000 FMFlg1=        2001
         NFxFlg=           0 DoJE=T BraDBF=F KetDBF=T FulRan=T
         wScrn=  0.000000 ICntrl=       500 IOpCl=  0 I1Cent=   200000004 NGrid=           0
         NMat0=    1 NMatS0=      1 NMatT0=    0 NMatD0=    1 NMtDS0=    0 NMtDT0=    0
 Petite list used in FoFCou.
 Requested convergence on RMS density matrix=1.00D-08 within 128 cycles.
 Requested convergence on MAX density matrix=1.00D-06.
 Requested convergence on             energy=1.00D-06.
 No special actions if energy rises.
 Integral accuracy reduced to 1.0D-05 until final iterations.
 Initial convergence to 1.0D-05 achieved.  Increase integral accuracy.
 SCF Done:  E(RwB97XD) =  -2444.47969995     A.U. after   12 cycles
            NFock= 12  Conv=0.88D-08     -V/T= 2.0074

 **********************************************************************

            Population analysis using the SCF Density.

 **********************************************************************

 Orbital symmetries:
       Occupied  (A) (A) (A) (A) (A) (A) (A) (A) (A) (A) (A) (A)
                 (A) (A) (A) (A) (A) (A) (A) (A) (A) (A) (A) (A)
                 (A) (A) (A) (A) (A) (A) (A) (A) (A) (A) (A) (A)
                 (A) (A) (A) (A) (A) (A) (A) (A) (A) (A) (A) (A)
                 (A) (A) (A) (A) (A) (A) (A) (A) (A) (A) (A) (A)
                 (A) (A) (A) (A) (A) (A) (A) (A) (A) (A) (A) (A)
                 (A) (A) (A) (A) (A) (A) (A) (A) (A) (A) (A) (A)
                 (A) (A) (A) (A) (A) (A) (A) (A) (A) (A) (A) (A)
                 (A) (A) (A) (A) (A) (A) (A) (A) (A) (A) (A) (A)
                 (A) (A) (A) (A) (A) (A) (A) (A) (A) (A) (A) (A)
                 (A) (A) (A) (A) (A) (A) (A) (A) (A) (A) (A) (A)
                 (A) (A) (A) (A) (A) (A) (A) (A) (A) (A) (A) (A)
                 (A) (A) (A) (A) (A) (A) (A) (A) (A) (A) (A) (A)
                 (A) (A) (A) (A)
       Virtual   (A) (A) (A) (A) (A) (A) (A) (A) (A) (A) (A) (A)
                 (A) (A) (A) (A) (A) (A) (A) (A) (A) (A) (A) (A)
                 (A) (A) (A) (A) (A) (A) (A) (A) (A) (A) (A) (A)
                 (A) (A) (A) (A) (A) (A) (A) (A) (A) (A) (A) (A)
                 (A) (A) (A) (A) (A) (A) (A) (A) (A) (A) (A) (A)
                 (A) (A) (A) (A) (A) (A) (A) (A) (A) (A) (A) (A)
                 (A) (A) (A) (A) (A) (A) (A) (A) (A) (A) (A) (A)
                 (A) (A) (A) (A) (A) (A) (A) (A) (A) (A) (A) (A)
                 (A) (A) (A) (A) (A) (A) (A) (A) (A) (A) (A) (A)
                 (A) (A) (A) (A) (A) (A) (A) (A) (A) (A) (A) (A)
                 (A) (A) (A) (A) (A) (A) (A) (A) (A) (A) (A) (A)
                 (A) (A) (A) (A) (A) (A) (A) (A) (A) (A) (A) (A)
                 (A) (A) (A) (A) (A) (A) (A) (A) (A) (A) (A) (A)
                 (A) (A) (A) (A) (A) (A) (A) (A) (A) (A) (A) (A)
                 (A) (A) (A) (A) (A) (A) (A) (A) (A) (A) (A) (A)
                 (A) (A) (A) (A) (A) (A) (A) (A) (A) (A) (A) (A)
                 (A) (A) (A) (A) (A) (A) (A) (A) (A) (A) (A) (A)
                 (A) (A) (A) (A) (A) (A) (A) (A) (A) (A) (A) (A)
                 (A) (A) (A) (A) (A) (A) (A) (A) (A) (A) (A) (A)
                 (A) (A) (A) (A) (A) (A) (A) (A) (A) (A) (A) (A)
                 (A) (A) (A) (A) (A) (A) (A) (A) (A) (A) (A) (A)
                 (A) (A) (A) (A) (A) (A) (A) (A) (A) (A) (A) (A)
                 (A) (A) (A) (A) (A) (A) (A) (A) (A) (A) (A) (A)
                 (A) (A) (A) (A) (A) (A) (A) (A) (A) (A) (A) (A)
                 (A) (A) (A) (A) (A) (A) (A) (A) (A) (A) (A) (A)
                 (A) (A) (A) (A) (A) (A) (A) (A) (A) (A) (A) (A)
                 (A) (A) (A) (A) (A) (A) (A) (A) (A) (A) (A) (A)
                 (A) (A) (A) (A) (A) (A) (A) (A) (A) (A) (A) (A)
                 (A) (A) (A) (A) (A) (A) (A) (A) (A) (A) (A) (A)
                 (A) (A) (A) (A) (A) (A) (A) (A) (A) (A) (A) (A)
                 (A) (A) (A) (A) (A) (A) (A) (A) (A) (A) (A) (A)
                 (A) (A) (A) (A) (A) (A) (A) (A) (A) (A) (A) (A)
                 (A) (A) (A) (A) (A) (A) (A) (A) (A) (A) (A) (A)
                 (A) (A) (A) (A) (A) (A) (A) (A) (A) (A) (A) (A)
                 (A) (A) (A) (A) (A) (A) (A) (A) (A) (A) (A) (A)
                 (A) (A) (A) (A) (A) (A) (A) (A) (A) (A) (A) (A)
                 (A) (A) (A) (A) (A) (A) (A) (A) (A) (A) (A) (A)
                 (A) (A) (A) (A)
 The electronic state is 1-A.
 Alpha  occ. eigenvalues --  -19.30550 -19.30487 -19.29157 -19.28715 -19.28154
 Alpha  occ. eigenvalues --  -19.28118 -19.27596 -19.27562 -19.27480 -19.27237
 Alpha  occ. eigenvalues --  -19.27012 -19.26596 -19.26029 -19.25827 -19.25729
 Alpha  occ. eigenvalues --  -19.25351 -19.25195 -19.24248 -19.24104 -19.23716
 Alpha  occ. eigenvalues --  -19.23511 -19.23492 -19.23403 -19.23089 -19.22842
 Alpha  occ. eigenvalues --  -19.22155 -19.21779 -19.21764 -19.21302 -19.21209
 Alpha  occ. eigenvalues --  -19.21074 -19.19695  -1.14402  -1.14393  -1.13248
 Alpha  occ. eigenvalues --   -1.12891  -1.12441  -1.12113  -1.11666  -1.11660
 Alpha  occ. eigenvalues --   -1.11607  -1.11287  -1.11278  -1.11082  -1.10002
 Alpha  occ. eigenvalues --   -1.09936  -1.09858  -1.09587  -1.09311  -1.08451
 Alpha  occ. eigenvalues --   -1.08426  -1.08091  -1.07955  -1.07593  -1.07535
 Alpha  occ. eigenvalues --   -1.07251  -1.07070  -1.06959  -1.06439  -1.06090
 Alpha  occ. eigenvalues --   -1.05781  -1.05277  -1.04909  -1.03696  -0.65538
 Alpha  occ. eigenvalues --   -0.65536  -0.64501  -0.63975  -0.63491  -0.63263
 Alpha  occ. eigenvalues --   -0.63217  -0.62840  -0.62545  -0.62379  -0.62074
 Alpha  occ. eigenvalues --   -0.62023  -0.61569  -0.61445  -0.61071  -0.61031
 Alpha  occ. eigenvalues --   -0.60829  -0.60380  -0.60102  -0.59756  -0.59496
 Alpha  occ. eigenvalues --   -0.58896  -0.58696  -0.58590  -0.58264  -0.58149
 Alpha  occ. eigenvalues --   -0.58046  -0.57455  -0.56934  -0.56499  -0.56155
 Alpha  occ. eigenvalues --   -0.54373  -0.51198  -0.50608  -0.49954  -0.49212
 Alpha  occ. eigenvalues --   -0.48889  -0.48210  -0.48165  -0.48106  -0.47450
 Alpha  occ. eigenvalues --   -0.47190  -0.47050  -0.46889  -0.46646  -0.46154
 Alpha  occ. eigenvalues --   -0.46093  -0.45602  -0.45270  -0.45102  -0.44369
 Alpha  occ. eigenvalues --   -0.44183  -0.44089  -0.43782  -0.43687  -0.43528
 Alpha  occ. eigenvalues --   -0.43186  -0.43059  -0.42875  -0.42820  -0.42614
 Alpha  occ. eigenvalues --   -0.42417  -0.41312  -0.40889  -0.40819  -0.40770
 Alpha  occ. eigenvalues --   -0.40715  -0.40593  -0.40230  -0.40044  -0.40002
 Alpha  occ. eigenvalues --   -0.39531  -0.39457  -0.39188  -0.38397  -0.38326
 Alpha  occ. eigenvalues --   -0.37989  -0.37576  -0.36803  -0.36565  -0.36339
 Alpha  occ. eigenvalues --   -0.36132  -0.35745  -0.35673  -0.35592  -0.35454
 Alpha  occ. eigenvalues --   -0.35143  -0.35135  -0.34840  -0.34553  -0.34493
 Alpha  occ. eigenvalues --   -0.33536  -0.32979  -0.32068  -0.31696  -0.30812
 Alpha virt. eigenvalues --    0.05684   0.07170   0.09482   0.10968   0.11706
 Alpha virt. eigenvalues --    0.11805   0.13125   0.13606   0.13895   0.14175
 Alpha virt. eigenvalues --    0.14791   0.15302   0.16097   0.16673   0.17016
 Alpha virt. eigenvalues --    0.17587   0.17784   0.18022   0.18445   0.19592
 Alpha virt. eigenvalues --    0.19830   0.20609   0.21114   0.21293   0.21351
 Alpha virt. eigenvalues --    0.21726   0.22161   0.22425   0.22658   0.23342
 Alpha virt. eigenvalues --    0.23447   0.23629   0.24074   0.24224   0.24304
 Alpha virt. eigenvalues --    0.24887   0.25061   0.25145   0.25285   0.25692
 Alpha virt. eigenvalues --    0.26375   0.26564   0.26811   0.27407   0.28080
 Alpha virt. eigenvalues --    0.28512   0.28938   0.29263   0.29470   0.29846
 Alpha virt. eigenvalues --    0.30366   0.30399   0.30954   0.31405   0.32299
 Alpha virt. eigenvalues --    0.32528   0.32575   0.33659   0.33812   0.34730
 Alpha virt. eigenvalues --    0.34945   0.35395   0.35647   0.37145   0.79007
 Alpha virt. eigenvalues --    0.79756   0.80051   0.80746   0.80897   0.82002
 Alpha virt. eigenvalues --    0.82243   0.82480   0.82579   0.83047   0.83347
 Alpha virt. eigenvalues --    0.83413   0.83621   0.84126   0.84610   0.84696
 Alpha virt. eigenvalues --    0.85312   0.85661   0.85875   0.86303   0.86663
 Alpha virt. eigenvalues --    0.86761   0.86998   0.87166   0.87533   0.87726
 Alpha virt. eigenvalues --    0.87818   0.88066   0.88614   0.89041   0.89434
 Alpha virt. eigenvalues --    0.89819   0.89967   0.90156   0.90429   0.90796
 Alpha virt. eigenvalues --    0.91016   0.91145   0.91615   0.91964   0.92292
 Alpha virt. eigenvalues --    0.92493   0.92614   0.92764   0.93068   0.93464
 Alpha virt. eigenvalues --    0.93579   0.93755   0.94020   0.94120   0.94468
 Alpha virt. eigenvalues --    0.94595   0.94752   0.95144   0.95364   0.95515
 Alpha virt. eigenvalues --    0.95527   0.95690   0.95972   0.96323   0.96561
 Alpha virt. eigenvalues --    0.96696   0.97208   0.97491   0.97823   0.98160
 Alpha virt. eigenvalues --    0.98235   0.98629   0.98866   0.99009   0.99167
 Alpha virt. eigenvalues --    0.99394   0.99974   1.00001   1.00161   1.00397
[...]
   D236      -1.73734  -0.00022  -0.00236   0.00870  -0.00259  -1.73993
   D237       1.63481   0.00013  -0.02844  -0.01074  -0.02014   1.61467
   D238       0.70668  -0.00074   0.01461   0.01084   0.00910   0.71578
   D239       2.52820   0.00059   0.02334   0.06487   0.00784   2.53604
   D240      -2.70970  -0.00391   0.00371   0.02607  -0.00046  -2.71015
   D241       0.74435   0.00497   0.01002   0.01572   0.00866   0.75301
   D242      -2.25947   0.00393   0.02601   0.04163   0.01012  -2.24935
   D243      -2.13145   0.00443  -0.00150   0.00702  -0.00453  -2.13598
   D244       1.61560   0.00281  -0.00652  -0.00277   0.00002   1.61562
   D245      -1.80729  -0.00096   0.00382  -0.01619   0.00086  -1.80644
   D246       1.43906  -0.00072  -0.00915  -0.03224  -0.00800   1.43105
   D247      -3.13076   0.00066  -0.00607   0.00512  -0.00213  -3.13289
   D248       3.07230   0.00042   0.00451   0.01292   0.00516   3.07746
   D249      -0.91992   0.00168   0.01987   0.03132   0.01453  -0.90539
   D250      -1.00005   0.00144   0.03045   0.03912   0.02182  -0.97822
   D251      -1.60163  -0.00047  -0.00858  -0.00587  -0.00635  -1.60798
   D252       0.79666   0.00324  -0.01269   0.01469  -0.00514   0.79152
   D253       0.30590   0.00236  -0.02221   0.00561  -0.00990   0.29601
   D254      -1.43634   0.00056  -0.00799   0.00111  -0.00420  -1.44053
   D255      -1.92709  -0.00031  -0.01750  -0.00797  -0.00896  -1.93605
   D256      -0.85763  -0.00407  -0.00461  -0.02763  -0.00375  -0.86138
   D257       0.97674  -0.00565   0.00611  -0.01318   0.00421   0.98095
   D258       1.59029  -0.00197  -0.01347  -0.03025  -0.00996   1.58032
   D259      -0.18932  -0.00459  -0.01468  -0.03723  -0.01110  -0.20042
   D260       2.18453  -0.00106  -0.03002  -0.04959  -0.02087   2.16366
   D261      -1.19381  -0.00132  -0.00329  -0.02982  -0.00286  -1.19667
         Item               Value     Threshold  Converged?
 Maximum Force            0.018213     0.000450     NO 
 RMS     Force            0.003586     0.000300     NO 
 Maximum Displacement     0.194336     0.001800     NO 
 RMS     Displacement     0.036094     0.001200     NO 
 Predicted change in Energy=-3.960711D-03
 GradGradGradGradGradGradGradGradGradGradGradGradGradGradGradGradGradGrad

 Stoichiometry    H64O32
 Framework group  C1[X(H64O32)]
 Deg. of freedom   282
 Full point group                 C1      NOp   1
 Largest Abelian subgroup         C1      NOp   1
 Largest concise Abelian subgroup C1      NOp   1
                         Standard orientation:                         
 ---------------------------------------------------------------------
 Center     Atomic      Atomic             Coordinates (Angstroms)
 Number     Number       Type             X           Y           Z
 ---------------------------------------------------------------------
      1          8           0       -0.079512   -0.435217    0.371147
      2          1           0        0.183518   -0.129239    1.255692
      3          1           0        0.706520   -0.313627   -0.180336
      4          8           0        0.399938   -3.930245   -0.845452
      5          1           0        0.568382   -3.354483   -0.084293
      6          1           0        0.681328   -3.442907   -1.643185
      7          8           0        2.714901   -0.416081    0.595198
      8          1           0        3.403113   -0.820606    0.040295
      9          1           0        2.792643   -0.854773    1.481940
     10          8           0       -5.103541   -2.650743    2.423294
     11          1           0       -4.475685   -2.434940    3.121297
     12          1           0       -5.991344   -2.561362    2.786282
     13          8           0       -3.098554    1.805258   -0.498343
     14          1           0       -3.211099    1.053755    0.109765
     15          1           0       -2.294256    2.300884   -0.216870
     16          8           0       -2.913205   -4.450727   -0.898652
     17          1           0       -1.968622   -4.636570   -0.797798
     18          1           0       -2.902481   -3.535996   -1.232339
     19          8           0       -2.621229   -2.808951    1.469176
     20          1           0       -3.227893   -3.327539    0.912156
     21          1           0       -1.765135   -3.144850    1.185788
     22          8           0        2.716319    4.373673    1.797646
     23          1           0        3.423467    4.164766    1.158478
     24          1           0        2.019034    3.723719    1.650871
     25          8           0       -1.822539   -1.036017    3.653933
     26          1           0       -1.790878   -1.255881    2.710150
     27          1           0       -1.378861   -0.169006    3.666551
     28          8           0        2.332414    2.442836   -0.814130
     29          1           0        2.287346    2.025942    0.059524
     30          1           0        2.884362    3.232745   -0.680490
     31          8           0       -1.903870   -1.881414   -1.170763
     32          1           0       -1.727609   -1.194208   -1.823027
     33          1           0       -1.033595   -2.144525   -0.846216
     34          8           0        2.671156    1.512596    2.357213
     35          1           0        3.077002    0.915019    1.697225
     36          1           0        3.269226    2.247765    2.554164
     37          8           0       -1.746151    2.657232   -4.882933
     38          1           0       -1.476190    1.870903   -4.393227
     39          1           0       -2.246861    3.152180   -4.224351
     40          8           0        0.145437    0.644383    2.768240
     41          1           0        0.011729    1.497918    2.334529
     42          1           0        1.090590    0.649530    3.007847
     43          8           0        3.275813   -1.626409   -1.866869
     44          1           0        2.656171   -2.099655   -1.295322
     45          1           0        2.747545   -0.899208   -2.258315
     46          8           0       -1.262317    0.932102   -2.319225
     47          1           0       -1.983629    1.116428   -1.662025
     48          1           0       -1.630075    0.282045   -2.916707
     49          8           0       -0.532875    2.713195   -0.199733
     50          1           0       -0.348827    3.660374   -0.082815
     51          1           0        0.179515    2.347106   -0.743794
     52          8           0       -3.774559    0.806617    2.263578
     53          1           0       -3.606369    0.111711    2.915310
     54          1           0       -4.631637    1.174577    2.499341
     55          8           0        0.609399   -2.095981   -3.155943
     56          1           0        0.882349   -2.566823   -3.952466
     57          1           0       -0.361332   -2.107282   -3.173699
     58          8           0        3.289708   -3.456841    0.265864
     59          1           0        4.020596   -3.805389   -0.277170
     60          1           0        2.616519   -4.113393    0.034839
     61          8           0       -4.296320   -0.909659   -0.175493
     62          1           0       -4.980285   -1.026574    0.494342
     63          1           0       -3.541567   -1.377920    0.221989
     64          8           0        4.873187    1.303861   -1.510108
     65          1           0        3.923382    1.167595   -1.351493
     66          1           0        4.874444    1.866096   -2.294859
     67          8           0        3.341084   -1.567258    2.945680
     68          1           0        2.600985   -1.389873    3.569429
     69          1           0        4.070676   -0.999039    3.215613
     70          8           0        1.047753   -1.822049    4.277958
     71          1           0        0.900133   -2.481733    3.574196
     72          1           0        0.189026   -1.382127    4.370862
     73          8           0       -2.666626   -1.330575   -4.365737
     74          1           0       -3.591554   -1.485749   -4.142512
     75          1           0       -2.494799   -1.902491   -5.122808
     76          8           0        0.087488    5.323328    0.983332
     77          1           0        1.019087    5.490274    1.185989
     78          1           0       -0.192286    4.582660    1.538153
     79          8           0        0.832908   -2.891862    1.800397
     80          1           0        0.296844   -2.118591    1.549904
     81          1           0        1.714968   -2.705874    1.435862
     82          8           0        1.608558    0.481794   -2.407869
     83          1           0        1.579996    1.446637   -2.445589
     84          1           0        0.820300    0.161190   -2.862911
     85          8           0        4.349442   -4.003435   -2.328461
     86          1           0        5.265971   -3.838202   -2.579073
     87          1           0        3.928031   -3.118995   -2.426382
     88          8           0        4.667499    3.669862    0.084215
     89          1           0        5.335973    4.217553   -0.342836
     90          1           0        4.974586    2.753479    0.004400
     91          8           0       -4.892890    3.893721   -0.953470
     92          1           0       -5.489081    3.593846   -0.258217
     93          1           0       -4.279535    3.141428   -1.060663
     94          8           0       -2.535500    4.734459    0.332564
     95          1           0       -3.420699    4.715562   -0.081856
     96          1           0       -2.659697    4.224102    1.140811
 ---------------------------------------------------------------------
 Rotational constants (GHZ):           0.0720797           0.0668583           0.0563407
 Standard basis: 6-31G(d) (6D, 7F)
 There are   608 symmetry adapted cartesian basis functions of A   symmetry.
 There are   608 symmetry adapted basis functions of A   symmetry.
   608 basis functions,  1152 primitive gaussians,   608 cartesian basis functions
   160 alpha electrons      160 beta electrons
       nuclear repulsion energy      5244.6488697308 Hartrees.
 NAtoms=   96 NActive=   96 NUniq=   96 SFac= 1.00D+00 NAtFMM=   60 NAOKFM=T Big=T
 Integral buffers will be    131072 words long.
 Raffenetti 2 integral format.
 Two-electron integral symmetry is turned on.
 Nuclear repulsion after empirical dispersion term =     5244.5644352245 Hartrees.
 One-electron integrals computed using PRISM.
 NBasis=   608 RedAO= T EigKep=  8.73D-03  NBF=   608
 NBsUse=   608 1.00D-06 EigRej= -1.00D+00 NBFU=   608
 Initial guess from the checkpoint file:  "/tmp/r2652.525076.maple/Gau-82962.chk"
 B after Tr=    -0.000000    0.000000    0.000000
         Rot=    0.999921    0.001357    0.002319   -0.012260 Ang=   1.44 deg.
 ExpMin= 1.61D-01 ExpMax= 5.48D+03 ExpMxC= 8.25D+02 IAcc=3 IRadAn=         5 AccDes= 0.00D+00
 Harris functional with IExCor= 4639 and IRadAn=       5 diagonalized for initial guess.
 HarFok:  IExCor= 4639 AccDes= 0.00D+00 IRadAn=         5 IDoV= 1 UseB2=F ITyADJ=14
 ICtDFT=  3500011 ScaDFX=  1.000000  1.000000  1.000000  1.000000
 FoFCou: FMM=F IPFlag=           0 FMFlag=      100000 FMFlg1=        2001
         NFxFlg=           0 DoJE=T BraDBF=F KetDBF=T FulRan=T
         wScrn=  0.000000 ICntrl=       500 IOpCl=  0 I1Cent=   200000004 NGrid=           0
         NMat0=    1 NMatS0=      1 NMatT0=    0 NMatD0=    1 NMtDS0=    0 NMtDT0=    0
 Petite list used in FoFCou.
 Requested convergence on RMS density matrix=1.00D-08 within 128 cycles.
 Requested convergence on MAX density matrix=1.00D-06.
 Requested convergence on             energy=1.00D-06.
 No special actions if energy rises.
 Integral accuracy reduced to 1.0D-05 until final iterations.
 Initial convergence to 1.0D-05 achieved.  Increase integral accuracy.
 SCF Done:  E(RwB97XD) =  -2444.88389906     A.U. after   10 cycles
            NFock= 10  Conv=0.59D-08     -V/T= 2.0080
 Calling FoFJK, ICntrl=      2127 FMM=T ISym2X=0 I1Cent= 0 IOpClX= 0 NMat=1 NMatS=1 NMatT=0.
 ***** Axes restored to original set *****
 -------------------------------------------------------------------
 Center     Atomic                   Forces (Hartrees/Bohr)
 Number     Number              X              Y              Z
 -------------------------------------------------------------------
      1        8          -0.012403684    0.008986159    0.004727127
      2        1           0.005706467   -0.001960676    0.000891391
      3        1           0.002408224   -0.000759061   -0.002535130
      4        8           0.003658180    0.004069522    0.001520499
      5        1          -0.003206614   -0.000780790   -0.000764795
      6        1          -0.000799677   -0.004268303    0.000532786
      7        8           0.003360797   -0.005690216   -0.006288832
      8        1          -0.001738213    0.001972763    0.003251212
      9        1          -0.005187010    0.010193720   -0.002366732
     10        8           0.005138144    0.002673785    0.006075891
     11        1          -0.001276028    0.000647986   -0.000370413
     12        1          -0.001893736   -0.002696346   -0.003986836
     13        8           0.003622659    0.004634495   -0.007214626
     14        1          -0.001702328   -0.002556342    0.005563112
     15        1          -0.003042032    0.000276263    0.003606167
     16        8           0.002169261   -0.003218987   -0.000950365
     17        1          -0.000204728    0.002075259    0.000083341
     18        1          -0.000326682    0.001237888   -0.001162068
     19        8           0.000381320   -0.000232870   -0.002967766
     20        1          -0.002325604   -0.001671167    0.000078285
     21        1          -0.001820062    0.000826670   -0.001901508
     22        8          -0.001492334   -0.005806317    0.001174098
     23        1           0.001527742   -0.004021997    0.000556402
     24        1          -0.000640181    0.003704323   -0.001490157
     25        8           0.007375935   -0.003128736   -0.001020661
     26        1          -0.005680382    0.000350282    0.005881839
     27        1          -0.001276571    0.001782944    0.001833394
     28        8           0.004214706   -0.004198272   -0.002429764
     29        1          -0.003063306    0.001817013    0.002799977
     30        1          -0.002122317    0.001721269    0.001271231
     31        8          -0.004927397    0.015139015    0.005464838
     32        1           0.002662604   -0.009844873   -0.002453407
     33        1           0.003593064   -0.004821164   -0.000679783
     34        8           0.004976444   -0.002250640   -0.002008252
     35        1           0.003348744    0.000618364    0.000843140
     36        1          -0.001152959   -0.000032015    0.000717414
     37        8          -0.000455738    0.001689467    0.000775772
     38        1           0.001088674   -0.004157702   -0.001377000
     39        1          -0.000026630    0.000024013   -0.000674682
     40        8           0.000499925   -0.005512114   -0.005375625
     41        1           0.001251985    0.001184887    0.001652583
     42        1           0.003777967   -0.002836594    0.000969217
     43        8           0.005971538   -0.001790182    0.001716618
     44        1          -0.002097968   -0.001584895   -0.002502964
     45        1          -0.000252162   -0.000199040   -0.000944943
     46        8          -0.002809156    0.002888620   -0.002794823
     47        1           0.003958014    0.003208814   -0.001474344
     48        1           0.000621988    0.007144649    0.013859306
     49        8          -0.006361666   -0.009462763   -0.009642158
     50        1           0.006120406    0.005884524    0.004317097
     51        1           0.001774615   -0.002086384    0.003095540
     52        8           0.001661604   -0.002520755   -0.003155969
     53        1          -0.001430055    0.002900632   -0.002462923
     54        1          -0.000436695    0.000405428    0.000908482
     55        8          -0.002376373   -0.004190613    0.005450170
     56        1           0.000455108    0.000306300   -0.000786418
     57        1          -0.001470944    0.002108985    0.000097769
     58        8          -0.007175586    0.005859243    0.008169484
     59        1           0.009221546    0.000912630   -0.002870751
     60        1          -0.001760827   -0.003855306    0.004491660
     61        8          -0.001655212   -0.000253662   -0.001302067
     62        1          -0.001119309   -0.001249639   -0.001752378
     63        1           0.003661287    0.002420763   -0.000148674
     64        8           0.000221654   -0.005820024   -0.001307350
     65        1           0.001023802    0.001026471    0.000214195
     66        1          -0.001526889    0.000872604   -0.000412331
     67        8           0.007673951   -0.000438898    0.002471380
     68        1          -0.005224601   -0.001622356    0.000058610
     69        1          -0.001931557   -0.002337077   -0.000951257
     70        8           0.002786108   -0.003512374   -0.003439287
     71        1          -0.000847714   -0.001552822    0.000505256
     72        1          -0.002991247    0.002392700    0.002302257
     73        8          -0.001336774   -0.000146558   -0.006636109
     74        1          -0.000604951   -0.002305407   -0.001037504
     75        1           0.001659434   -0.001013645    0.001123170
     76        8          -0.001021366    0.005818520    0.001808318
     77        1          -0.005929035   -0.002136522   -0.002563578
     78        1           0.006421058   -0.005474179   -0.004360959
     79        8           0.002728962    0.006050733    0.007948266
     80        1           0.006416067    0.003120357   -0.003400696
     81        1          -0.002284772   -0.003130886   -0.006100083
     82        8          -0.001766684    0.006608414   -0.000284556
     83        1          -0.004006325   -0.003076456   -0.000630465
     84        1          -0.000239694   -0.003929183    0.000714092
     85        8           0.001750176   -0.000883001   -0.000962223
     86        1          -0.001594482   -0.000108904    0.000356922
     87        1          -0.004264920    0.002300078   -0.003286130
     88        8           0.001612368   -0.000694901   -0.002368840
     89        1          -0.000264872   -0.000778246   -0.000324296
     90        1          -0.000387533    0.011073105    0.002055371
     91        8           0.003023436   -0.000696744   -0.001138471
     92        1          -0.000490517    0.001133564    0.000350307
     93        1          -0.005131480   -0.001118810    0.000747340
     94        8          -0.001497818   -0.003548193    0.002432703
     95        1          -0.000948390    0.002548284   -0.000716220
     96        1           0.000475822   -0.000647902    0.002313140
 -------------------------------------------------------------------
 Cartesian Forces:  Max     0.015139015 RMS     0.003666178

 GradGradGradGradGradGradGradGradGradGradGradGradGradGradGradGradGradGrad
 Berny optimization.
 Using GEDIIS/GDIIS optimizer.
 Bend failed for angle    59 -    58 -    81
 Tors failed for dihedral    81 -    58 -    59 -    85
 Tors failed for dihedral    81 -    58 -    59 -    87
 Tors failed for dihedral    59 -    58 -    81 -     9
 Tors failed for dihedral    59 -    58 -    81 -    67
 Tors failed for dihedral    59 -    58 -    81 -    79
 FormBX had a problem.
 Error termination via Lnk1e in /usr/local/apps/gaussian/g16-b01-avx//g16/l103.exe at Wed Feb 17 16:32:19 2021.
 Job cpu time:       0 days 10 hours 58 minutes 35.3 seconds.
 Elapsed time:       0 days  2 hours 46 minutes  3.1 seconds.
 File lengths (MBytes):  RWF=    238 Int=      0 D2E=      0 Chk=     33 Scr=      1
